 &FCI NORB=  14,NELEC=10,MS2=0,
  ORBSYM=1,1,1,1,1,1,1,1,1,1,1,1,1,1,
  ISYM=1,
 &END
 5.97225436887667    1    1    1    1
 -0.6161114234336053    1    1    2    1
 1.456406502746916    1    1    2    2
 1.417877440031306    1    1    3    3
 1.417877440031308    1    1    4    4
 1.417877440031305    1    1    5    5
 0.06095697652509638    1    1    6    3
 -0.6469694565045789    1    1    6    4
 -0.07697721196949157    1    1    6    5
 1.184476051363845    1    1    6    6
 -0.6191367477316784    1    1    7    3
 -0.08159610713181921    1    1    7    4
 0.1955057152839244    1    1    7    5
 1.184476051363845    1    1    7    7
 -0.2028907499632867    1    1    8    3
 0.05461977160891408    1    1    8    4
 -0.6197279612283382    1    1    8    5
 1.184476051363847    1    1    8    8
 -0.5484216407384335    1    1    9    1
 0.5867026177540261    1    1    9    2
 1.168510454386251    1    1    9    9
 1.262224708526355    1    1   10   10
 1.262224708526355    1    1   11   11
 1.262224708526355    1    1   12   12
 1.262224708526354    1    1   13   13
 1.262224708526355    1    1   14   14
 -0.6161114234336048    2    1    1    1
 0.1031957484901836    2    1    2    1
 -0.02878553807739201    2    1    2    2
 -0.01993079545194164    2    1    3    3
 -0.01993079545194168    2    1    4    4
 -0.01993079545194163    2    1    5    5
 -0.002008914216908253    2    1    6    3
 0.02132169627117835    2    1    6    4
 0.002536881327107901    2    1    6    5
 -0.02360238461023883    2    1    6    6
 0.02040443417032717    2    1    7    3
 0.002689102855913362    2    1    7    4
 -0.006443137985345993    2    1    7    5
 -0.02360238461023883    2    1    7    7
 0.006686521138603668    2    1    8    3
 -0.001800063618054514    2    1    8    4
 0.0204239183584607    2    1    8    5
 -0.02360238461023887    2    1    8    8
 0.09265402686572541    2    1    9    1
 -0.02624129828540179    2    1    9    2
 -0.02430106547420234    2    1    9    9
 -0.003721357522961455    2    1   10   10
 -0.003721357522961477    2    1   11   11
 -0.003721357522961449    2    1   12   12
 -0.003721357522961484    2    1   13   13
 -0.003721357522961441    2    1   14   14
 1.456406502746916    2    2    1    1
 -0.02878553807739197    2    2    2    1
 1.022548218429601    2    2    2    2
 0.9937583237029064    2    2    3    3
 0.9937583237029077    2    2    4    4
 0.9937583237029066    2    2    5    5
 0.02479429966694381    2    2    6    3
 -0.2631553514359437    2    2    6    4
 -0.03131054343405052    2    2    6    5
 0.7901715240009944    2    2    6    6
 -0.2518343745568826    2    2    7    3
 -0.03318928278946785    2    2    7    4
 0.07952210834069341    2    2    7    5
 0.7901715240009947    2    2    7    7
 -0.08252597718933112    2    2    8    3
 0.0222166364247723    2    2    8    4
 -0.2520748511264069    2    2    8    5
 0.7901715240009951    2    2    8    8
 -0.02364863173085848    2    2    9    1
 0.2273943558157981    2    2    9    2
 0.8250552002385573    2    2    9    9
 1.028821063311367    2    2   10   10
 1.028821063311367    2    2   11   11
 1.028821063311367    2    2   12   12
 1.028821063311367    2    2   13   13
 1.028821063311367    2    2   14   14
 0.04805612668828002    3    1    3    1
 0.0489629309912097    3    1    3    2
 0.004902403171842287    3    1    6    1
 0.002578411537756448    3    1    6    2
 -0.04979344660630049    3    1    7    1
 -0.02618878797479595    3    1    7    2
 -0.01631728331781634    3    1    8    1
 -0.008582050495795491    3    1    8    2
 0.02670569331576052    3    1    9    3
 0.00322184815943355    3    1    9    6
 -0.03272413930004756    3    1    9    7
 -0.01072368130112527    3    1    9    8
 0.007993447425557113    3    1   10    3
 0.03537314749196052    3    1   10    4
 -0.003260256495565971    3    1   10    5
 -0.01926136205649632    3    1   10    6
 -0.007368751150335561    3    1   10    7
 0.002027053095691641    3    1   10    8
 0.005289436471887581    3    1   11    3
 0.00247095440705246    3    1   11    4
 0.02856631835822156    3    1   11    5
 -0.003022347515096018    3    1   11    6
 0.001833653426920521    3    1   11    7
 -0.0162125724812528    3    1   11    8
 0.0150295505602498    3    1   12    3
 -0.00286150270368914    3    1   12    4
 0.01854929234232301    3    1   12    5
 0.001165040178770681    3    1   12    6
 -0.004735837606189616    3    1   12    7
 -0.01278560995816688    3    1   12    8
 -0.01999225209747776    3    1   13    3
 -5.355685440591985e-05    3    1   13    4
 -6.764459172071816e-05    3    1   13    5
 -0.001025211927337229    3    1   13    6
 0.01075739610884945    3    1   13    7
 0.003561630871849956    3    1   13    8
 0.03242960011979208    3    1   14    3
 -0.007828865380643171    3    1   14    4
 -0.01249410818049576    3    1   14    5
 0.00696074149744929    3    1   14    6
 -0.01903097634273795    3    1   14    7
 0.0006398137416271966    3    1   14    8
 0.0489629309912097    3    2    3    1
 0.2004878969610005    3    2    3    2
 0.004560932568743014    3    2    6    1
 0.005371035516055682    3    2    6    2
 -0.04632514796846012    3    2    7    1
 -0.05455332024207206    3    2    7    2
 -0.01518072388356187    3    2    8    1
 -0.01787709112316842    3    2    8    2
 0.03945516893839297    3    2    9    3
 0.01268859335808154    3    2    9    6
 -0.1288773635578535    3    2    9    7
 -0.04223303662937496    3    2    9    8
 0.03362587006723042    3    2   10    3
 0.1488034884211104    3    2   10    4
 -0.01371485361312734    3    2   10    5
 -0.04852230129254548    3    2   10    6
 -0.01856300517157778    3    2   10    7
 0.00510645512797285    3    2   10    8
 0.02225096307806958    3    2   11    3
 0.01039451283159035    3    2   11    4
 0.1201693409956656    3    2   11    5
 -0.007613753186722529    3    2   11    6
 0.004619251940032898    3    2   11    7
 -0.04084193653362425    3    2   11    8
 0.06322449969358583    3    2   12    3
 -0.01203742427874582    3    2   12    4
 0.07803092469811969    3    2   12    5
 0.002934913450379062    3    2   12    6
 -0.0119302954031019    3    2   12    7
 -0.03220889658682805    3    2   12    8
 -0.08410099367536006    3    2   13    3
 -0.0002252965124540741    3    2   13    4
 -0.0002845591058345262    3    2   13    5
 -0.002582664812647062    3    2   13    6
 0.02709951734388391    3    2   13    7
 0.008972290004716894    3    2   13    8
 0.1364209285312672    3    2   14    3
 -0.03293352618066392    3    2   14    4
 -0.05255870664014409    3    2   14    5
 0.01753516678457559    3    2   14    6
 -0.04794192463051648    3    2   14    7
 0.001611788151392735    3    2   14    8
 1.417877440031306    3    3    1    1
 -0.01993079545194157    3    3    2    1
 0.9937583237029065    3    3    2    2
 1.041012731133516    3    3    3    3
 0.9376614830834359    3    3    4    4
 0.9376614830834347    3    3    5    5
 0.02640878947658904    3    3    6    3
 -0.2482902113157823    3    3    6    4
 -0.02954187100217389    3    3    6    5
 0.760194097319581    3    3    6    6
 -0.2682326611349274    3    3    7    3
 -0.03131448398161163    3    3    7    4
 0.07503005725115743    3    3    7    5
 -0.005989342640041597    3    3    7    6
 0.8204378504709998    3    3    7    7
 -0.08789968610601508    3    3    8    3
 0.02096166132488986    3    3    8    4
 -0.23783562717631    3    3    8    5
 -0.00196270407866634    3    3    8    6
 0.01993508026968586    3    3    8    7
 0.766137132006613    3    3    8    8
 -0.01570793296620945    3    3    9    1
 0.2203011083675277    3    3    9    2
 0.8103324695199947    3    3    9    9
 0.001878325572879967    3    3   10    1
 0.01554955740848871    3    3   10    2
 0.004242623201139464    3    3   10    9
 1.023770516385385    3    3   10   10
 0.001242928521616941    3    3   11    1
 0.0102894773305446    3    3   11    2
 0.002807435228113689    3    3   11    9
 0.00231864840722509    3    3   11   10
 0.9935976334035796    3    3   11   11
 0.003531691354589988    3    3   12    1
 0.02923680444975215    3    3   12    2
 0.007977123825915505    3    3   12    9
 -0.002636139460541889    3    3   12   10
 0.03820644214305872    3    3   12   11
 0.9763459971727995    3    3   12   12
 -0.004697842667244202    3    3   13    1
 -0.03889068823055949    3    3   13    2
 -0.01061114035986495    3    3   13    9
 -0.01024321379926324    3    3   13   10
 -0.00683886160922108    3    3   13   11
 -0.01912986098793408    3    3   13   12
 0.9650261171785691    3    3   13   13
 0.00762041006593989    3    3   14    1
 0.06308491217253413    3    3   14    2
 0.01721241994186457    3    3   14    9
 0.001460651040899985    3    3   14   10
 -0.0129860661383001    3    3   14   11
 0.01763739134974771    3    3   14   12
 -0.04104596074820874    3    3   14   13
 1.02017315735606    3    3   14   14
 0.04805612668828007    4    1    4    1
 0.04896293099120976    4    1    4    2
 -0.05203186405328542    4    1    6    1
 -0.02736608024744525    4    1    6    2
 -0.00656228437196723    4    1    7    1
 -0.003451423545885275    4    1    7    2
 0.004392739877290327    4    1    8    1
 0.002310354898394029    4    1    8    2
 0.0267056933157606    4    1    9    4
 -0.03419522213000222    4    1    9    6
 -0.00431271829027414    4    1    9    7
 0.002886898607157949    4    1    9    8
 0.03537314749196053    4    1   10    3
 -0.0004740021567750234    4    1   10    4
 0.002151179677053508    4    1   10    5
 0.001997974159290134    4    1   10    6
 -0.01864774207177695    4    1   10    7
 -0.007423693214862791    4    1   10    8
 0.002470954407052462    4    1   11    3
 0.002965875398212585    4    1   11    4
 -0.02126604931769403    4    1   11    5
 -0.0001141113838521035    4    1   11    6
 -0.005156885506672883    4    1   11    7
 0.01116680230549848    4    1   11    8
 -0.002861502703689134    4    1   12    3
 -0.004415822630615977    4    1   12    4
 0.02820574204302062    4    1   12    5
 0.0004446555605613503    4    1   12    6
 0.006650041405851703    4    1   12    7
 -0.01490710422181873    4    1   12    8
 -5.35568544059216e-05    4    1   13    3
 0.04172042809835125    4    1   13    4
 0.00454323516544352    4    1   13    5
 -0.02378181128845077    4    1   13    6
 -0.002159324309870005    4    1   13    7
 -0.0004574131880841195    4    1   13    8
 -0.007828865380643172    4    1   14    3
 0.0001230150397470805    4    1   14    4
 -0.00733280852240978    4    1   14    5
 6.651659171080663e-06    4    1   14    6
 0.002960020619270459    4    1   14    7
 0.005339499234650705    4    1   14    8
 0.04896293099120978    4    2    4    1
 0.2004878969610008    4    2    4    2
 -0.04840765132008872    4    2    6    1
 -0.05700571332075004    4    2    6    2
 -0.006105196873518482    4    2    7    1
 -0.007189588696159356    4    2    7    2
 0.00408676921706965    4    2    8    1
 0.00481265229861833    4    2    8    2
 0.03945516893839319    4    2    9    4
 -0.1346709239311742    4    2    9    6
 -0.0169847633858916    4    2    9    7
 0.01136946270574075    4    2    9    8
 0.1488034884211104    4    2   10    3
 -0.001993975075678098    4    2   10    4
 0.009049323084379514    4    2   10    5
 0.005033200863336607    4    2   10    6
 -0.04697649919971586    4    2   10    7
 -0.01870141259057573    4    2   10    8
 0.01039451283159035    4    2   11    3
 0.01247648673550147    4    2   11    4
 -0.08945945011332262    4    2   11    5
 -0.0002874639359324866    4    2   11    6
 -0.01299097911933748    4    2   11    7
 0.02813087383708373    4    2   11    8
 -0.01203742427874582    4    2   12    3
 -0.01857594978885842    4    2   12    4
 0.11865251206332    4    2   12    5
 0.001120155003456087    4    2   12    6
 0.01675246598637141    4    2   12    7
 -0.03755326338442966    4    2   12    8
 -0.000225296512454073    4    2   13    3
 0.1755044625550424    4    2   13    4
 0.01911193346560711    4    2   13    5
 -0.05991000061345464    4    2   13    6
 -0.005439666439191001    4    2   13    7
 -0.001152293408031117    4    2   13    8
 -0.03293352618066392    4    2   14    3
 0.0005174848250862537    4    2   14    4
 -0.03084677404821311    4    2   14    5
 1.675654138309475e-05    4    2   14    6
 0.007456742254213874    4    2   14    7
 0.01345101088153086    4    2   14    8
 0.0516756240250411    4    3    4    3
 -0.01600029810551876    4    3    6    3
 0.001507536076404729    4    3    6    4
 -0.006258587891679745    4    3    6    6
 -0.0020179654931666    4    3    7    3
 -0.01531196323441604    4    3    7    4
 0.03138940300996435    4    3    7    6
 0.008017245466641915    4    3    7    7
 0.001350809716612613    4    3    8    3
 -0.005017721392604698    4    3    8    4
 0.01067980912374451    4    3    8    6
 -0.001369716186193604    4    3    8    7
 -0.001758657574961853    4    3    8    8
 0.00831209414288148    4    3   10    1
 0.06881095957253304    4    3   10    2
 0.01877474489503637    4    3   10    9
 0.0164274255205905    4    3   10   10
 0.0005806326863860762    4    3   11    1
 0.004806717972945506    4    3   11    2
 0.001311490266740316    4    3   11    9
 0.01399903860267908    4    3   11   10
 -0.03724112168366953    4    3   11   11
 -0.0006724049610959774    4    3   12    1
 -0.005566446890398952    4    3   12    2
 -0.001518778708918408    4    3   12    9
 0.009574219856623283    4    3   12   10
 0.01312641847034513    4    3   12   11
 0.03126136738476983    4    3   12   12
 -1.25849591394087e-05    4    3   13    1
 -0.0001041835065481609    4    3   13    2
 -2.842597705166966e-05    4    3   13    9
 0.02388991708827512    4    3   13   10
 0.005850714382381931    4    3   13   11
 0.0006223457584674207    4    3   13   12
 -9.33110201520193e-05    4    3   13   13
 -0.001839651563114126    4    3   14    1
 -0.01522939793041253    4    3   14    2
 -0.004155269201661049    4    3   14    9
 0.03455984325655713    4    3   14   10
 0.00228470532288454    4    3   14   11
 -0.02108089071386653    4    3   14   12
 -0.007235100174053441    4    3   14   13
 -0.0103543602015381    4    3   14   14
 1.417877440031308    4    4    1    1
 -0.0199307954519416    4    4    2    1
 0.993758323702908    4    4    2    2
 0.9376614830834359    4    4    3    3
 1.04101273113352    4    4    4    4
 0.9376614830834361    4    4    5    5
 0.02339371732377949    4    4    6    3
 -0.2802908075268202    4    4    6    4
 -0.02954187100217395    4    4    6    5
 0.8260302059812802    4    4    6    6
 -0.2376087346660959    4    4    7    3
 -0.03535041496794476    4    4    7    4
 0.07503005725115756    4    4    7    5
 0.008377653177945527    4    4    7    6
 0.7606610116197714    4    4    7    7
 -0.07786424332080583    4    4    8    3
 0.02366328075811516    4    4    8    4
 -0.2378356271763104    4    4    8    5
 -0.005607933016446947    4    4    8    6
 -0.0007072752795323563    4    4    8    7
 0.7600778621961455    4    4    8    8
 -0.01570793296620959    4    4    9    1
 0.220301108367528    4    4    9    2
 0.810332469519997    4    4    9    9
 -0.0001113825268712183    4    4   10    1
 -0.0009220707106867734    4    4   10    2
 -0.0002515826327066501    4    4   10    9
 1.019351001521183    4    4   10   10
 0.0006969307871628347    4    4   11    1
 0.005769481841274095    4    4   11    2
 0.001574175835061358    4    4   11    9
 0.002553335633085653    4    4   11   10
 0.9693046254049827    4    4   11   11
 -0.001037643976473642    4    4   12    1
 -0.008590046802701175    4    4   12    2
 -0.002343753645625846    4    4   12    9
 -0.002439100395109343    4    4   12   10
 -0.03932793189939505    4    4   12   11
 0.9918933975448875    4    4   12   12
 0.009803598226977911    4    4   13    1
 0.08115824841080051    4    4   13    2
 0.02214364426112443    4    4   13    9
 -0.0007546448704777997    4    4   13   10
 0.001711966095007392    4    4   13   11
 -0.003547896359312377    4    4   13   12
 1.051392645974066    4    4   13   13
 2.890646334484245e-05    4    4   14    1
 0.0002392996814539594    4    4   14    2
 6.529178637634342e-05    4    4   14    9
 -0.01857089220293026    4    4   14   10
 0.008687773932651577    4    4   14   11
 -0.01173307925440714    4    4   14   12
 -0.001761098238774545    4    4   14   13
 0.946971751051281    4    4   14   14
 0.04805612668827995    5    1    5    1
 0.04896293099120968    5    1    5    2
 -0.006190814401095568    5    1    6    1
 -0.003256049476219441    5    1    6    2
 0.01572334937456429    5    1    7    1
 0.008269671836132806    5    1    7    2
 -0.04984099435368692    5    1    8    1
 -0.0262137956406607    5    1    8    2
 0.0267056933157605    5    1    9    5
 -0.00406858907446182    5    1    9    6
 0.01033334927113587    5    1    9    7
 -0.03275538757095316    5    1    9    8
 -0.003260256495565969    5    1   10    3
 0.002151179677053509    5    1   10    4
 -0.007519445268782072    5    1   10    5
 -0.0008798384598529358    5    1   10    6
 0.0003243305664162182    5    1   10    7
 0.004730285794673912    5    1   10    8
 0.02856631835822155    5    1   11    3
 -0.02126604931769402    5    1   11    4
 -0.008255311870100141    5    1   11    5
 0.01403285171344279    5    1   11    6
 -0.01527645331556985    5    1   11    7
 -0.00160141487528091    5    1   11    8
 0.018549292342323    5    1   12    3
 0.0282057420430206    5    1   12    4
 -0.0106137279296338    5    1   12    5
 -0.01417657663878483    5    1   12    6
 -0.0137943799552611    5    1   12    7
 0.003787314918315257    5    1   12    8
 -6.764459172072163e-05    5    1   13    3
 0.00454323516544352    5    1   13    4
 -0.02172817600087347    5    1   13    5
 -0.001105287749466941    5    1   13    6
 -0.003980454773079434    5    1   13    7
 0.01193875366866202    5    1   13    8
 -0.01249410818049576    5    1   14    3
 -0.007332808522409775    5    1   14    4
 -0.03255261515953915    5    1   14    5
 0.005642885289688386    5    1   14    6
 0.001713020832540876    5    1   14    7
 0.01940143974829093    5    1   14    8
 0.04896293099120968    5    2    5    1
 0.2004878969610006    5    2    5    2
 -0.00575960116686797    5    2    6    1
 -0.006782609029909276    5    2    6    2
 0.01462815964710348    5    2    7    1
 0.01722638162589169    5    2    7    2
 -0.04636938383850666    5    2    8    1
 -0.05460541319138081    5    2    8    2
 0.03945516893839289    5    2    9    5
 -0.01602331014756939    5    2    9    6
 0.0406957933584069    5    2    9    7
 -0.1290004285140661    5    2    9    8
 -0.01371485361312735    5    2   10    3
 0.009049323084379512    5    2   10    4
 -0.0316318949915523    5    2   10    5
 -0.002216446932077397    5    2   10    6
 0.0008170380379056392    5    2   10    7
 0.01191630954528494    5    2   10    8
 0.1201693409956656    5    2   11    3
 -0.08945945011332265    5    2   11    4
 -0.03472744981357096    5    2   11    5
 0.03535088831392557    5    2   11    6
 -0.03848370994145684    5    2   11    7
 -0.004034207697504818    5    2   11    8
 0.07803092469811972    5    2   12    3
 0.11865251206332    5    2   12    4
 -0.04464854990472738    5    2   12    5
 -0.03571295326604266    5    2   12    6
 -0.03475014167584697    5    2   12    7
 0.009540822451559986    5    2   12    8
 -0.0002845591058345254    5    2   13    3
 0.01911193346560711    5    2   13    4
 -0.09140346887968225    5    2   13    5
 -0.002784387990697992    5    2   13    6
 -0.0100273711284904    5    2   13    7
 0.03007553675950569    5    2   13    8
 -0.05255870664014411    5    2   14    3
 -0.03084677404821311    5    2   14    4
 -0.1369384133563535    5    2   14    5
 0.01421528650894064    5    2   14    6
 0.004315360082695785    5    2   14    7
 0.04887517830849524    5    2   14    8
 0.05167562402504105    5    3    5    3
 -0.00190373490813295    5    3    6    3
 0.001507536076404774    5    3    6    5
 -0.0007446543912138101    5    3    6    6
 0.004835080998685877    5    3    7    3
 -0.01531196323441596    5    3    7    5
 0.00472733913371088    5    3    7    6
 -0.0192094618807048    5    3    7    7
 -0.01532658462356428    5    3    8    3
 -0.005017721392604784    5    3    8    5
 -0.001758267629759672    5    3    8    6
 0.02729829650631151    5    3    8    7
 0.01995411627191953    5    3    8    8
 -0.0007661053890452997    5    3   10    1
 -0.006342137859331459    5    3   10    2
 -0.001730422321353998    5    3   10    9
 0.004728839655843248    5    3   10   10
 0.006712603891497834    5    3   11    1
 0.05556971649555485    5    3   11    2
 0.01516193434265061    5    3   11    9
 -0.02295390017064922    5    3   11   10
 -0.008707541771089953    5    3   11   11
 0.004358771417450526    5    3   12    1
 0.03608371592482064    5    3   12    2
 0.009845271241121971    5    3   12    9
 0.03127136662787545    5    3   12   10
 0.006396479671224671    5    3   12   11
 7.609276293114151e-05    5    3   12   12
 -1.58953402370314e-05    5    3   13    1
 -0.000131588212987068    5    3   13    2
 -3.590322159977431e-05    5    3   13    9
 0.00940649020716194    5    3   13   10
 -0.03740112701075969    5    3   13   11
 -0.02501460193513067    5    3   13   12
 0.0001635834354794551    5    3   13   13
 -0.00293590508029373    5    3   14    1
 -0.02430463879693898    5    3   14    2
 -0.006631405752996838    5    3   14    9
 -0.008936021844910887    5    3   14   10
 0.005769604059307806    5    3   14   11
 -0.008160323290354028    5    3   14   12
 0.01541713237825468    5    3   14   13
 0.00373902591683802    5    3   14   14
 0.05167562402504112    5    4    5    4
 -0.001903734908132992    5    4    6    4
 -0.01600029810551875    5    4    6    5
 0.007903420973794314    5    4    6    6
 0.004835080998685966    5    4    7    4
 -0.002017965493166525    5    4    7    5
 -0.009538110887682787    5    4    7    6
 -0.002531617312823222    5    4    7    7
 -0.01532658462356428    5    4    8    4
 0.001350809716612592    5    4    8    5
 0.0314808023649542    5    4    8    6
 0.004859772603072233    5    4    8    7
 -0.005371803660970976    5    4    8    8
 0.0005054910083414551    5    4   10    1
 0.004184664025858206    5    4   10    2
 0.001141765789127062    5    4   10    9
 -0.008406190608696762    5    4   10   10
 -0.00499716356923024    5    4   11    1
 -0.04136859068591281    5    4   11    2
 -0.01128722432618445    5    4   11    9
 0.03682394518124436    5    4   11   10
 0.01161276523067526    5    4   11   11
 0.00662787452783788    5    4   12    1
 0.05486829171412298    5    4   12    2
 0.01497055390825113    5    4   12    9
 0.01293029092199277    5    4   12   10
 0.004266454221734817    5    4   12   11
 -0.03025742243171139    5    4   12   12
 0.001067583777129218    5    4   13    1
 0.008837900878594328    5    4   13    2
 0.002411379458069057    5    4   13    9
 0.0001418558108892122    5    4   13   10
 -0.01430046603746333    5    4   13   11
 0.01569374564630642    5    4   13   12
 0.00576181348256254    5    4   13   13
 -0.001723086552697817    5    4   14    1
 -0.0142644244734892    5    4   14    2
 -0.003891980757541619    5    4   14    9
 -0.01356130903121155    5    4   14   10
 0.01503112569001839    5    4   14   11
 -0.02898759475033364    5    4   14   12
 -0.009284552420757743    5    4   14   13
 0.02128903432717064    5    4   14   14
 1.417877440031306    5    5    1    1
 -0.01993079545194152    5    5    2    1
 0.9937583237029068    5    5    2    2
 0.9376614830834347    5    5    3    3
 0.9376614830834362    5    5    4    4
 1.041012731133517    5    5    5    5
 0.02339371732377948    5    5    6    3
 -0.2482902113157824    5    5    6    4
 -0.03334934081843982    5    5    6    5
 0.760544776496333    5    5    6    6
 -0.2376087346660956    5    5    7    3
 -0.0313144839816116    5    5    7    4
 0.08470021924852934    5    5    7    5
 -0.002388310537903413    5    5    7    6
 0.7656702177064241    5    5    7    7
 -0.07786424332080573    5    5    8    3
 0.02096166132488985    5    5    8    4
 -0.2684887964234385    5    5    8    5
 0.007570637095113221    5    5    8    6
 -0.01922780499015407    5    5    8    7
 0.820554085594438    5    5    8    8
 -0.01570793296620948    5    5    9    1
 0.2203011083675276    5    5    9    2
 0.8103324695199962    5    5    9    9
 -0.001766943046008745    5    5   10    1
 -0.01462748669780193    5    5   10    2
 -0.003991040568432796    5    5   10    9
 0.9442265349912703    5    5   10   10
 -0.00193985930877977    5    5   11    1
 -0.01605895917181866    5    5   11    2
 -0.004381611063175028    5    5   11    9
 -0.004871984040310648    5    5   11   10
 1.024445794089275    5    5   11   11
 -0.002494047378116342    5    5   12    1
 -0.02064675764705096    5    5   12    2
 -0.005633370180289635    5    5   12    9
 0.005075239855651228    5    5   12   10
 0.001121489756336072    5    5   12   11
 1.019108658180151    5    5   12   12
 -0.005105755559733702    5    5   13    1
 -0.04226756018024123    5    5   13    2
 -0.01153250390125908    5    5   13    9
 0.01099785866974098    5    5   13   10
 0.005126895514213647    5    5   13   11
 0.02267775734724644    5    5   13   12
 0.9709292897452015    5    5   13   13
 -0.007649316529284733    5    5   14    1
 -0.06332421185398812    5    5   14    2
 -0.01727771172824087    5    5   14    9
 0.01711024116202992    5    5   14   10
 0.004298292205648202    5    5   14   11
 -0.005904312095340841    5    5   14   12
 0.0428070589869833    5    5   14   13
 1.020203144490498    5    5   14   14
 0.004902403171842286    6    1    3    1
 0.004560932568743014    6    1    3    2
 -0.05203186405328544    6    1    4    1
 -0.04840765132008873    6    1    4    2
 -0.006190814401095569    6    1    5    1
 -0.00575960116686797    6    1    5    2
 0.05783836750519696    6    1    6    1
 0.02835344841180488    6    1    6    2
 0.002568983280113803    6    1    9    3
 -0.0272660130349526    6    1    9    4
 -0.003244143357700551    6    1    9    5
 0.03488899812610009    6    1    9    6
 -0.03384924220199874    6    1   10    3
 0.003511169720644803    6    1   10    4
 -0.001546197254318833    6    1   10    5
 -0.003762782345433914    6    1   10    6
 0.01817915365030304    6    1   10    7
 0.007155894130159973    6    1   10    8
 -0.005311367532421713    6    1   11    3
 -0.0002005353442132301    6    1   11    4
 0.02466084148357791    6    1   11    5
 -0.001867445623770384    6    1   11    6
 0.007252697858817764    6    1   11    7
 -0.01268825564939062    6    1   11    8
 0.002047400753414948    6    1   12    3
 0.0007814220885189346    6    1   12    4
 -0.02491341862708924    6    1   12    5
 0.001371802510023447    6    1   12    6
 -0.005535447828076095    6    1   12    7
 0.01344732448738915    6    1   12    8
 -0.001801671487978262    6    1   13    3
 -0.04179332115474641    6    1   13    4
 -0.001942393929612585    6    1   13    5
 0.02416806779542508    6    1   13    6
 0.00370027003071294    6    1   13    7
 -0.0006367568796736338    6    1   13    8
 0.01223256300159717    6    1   14    3
 1.168939256043322e-05    6    1   14    4
 0.009916608717935219    6    1   14    5
 -2.254085531223438e-05    6    1   14    6
 -0.005030046407157825    6    1   14    7
 -0.007699555446195246    6    1   14    8
 0.002578411537756448    6    2    3    1
 0.00537103551605568    6    2    3    2
 -0.02736608024744527    6    2    4    1
 -0.05700571332075005    6    2    4    2
 -0.003256049476219441    6    2    5    1
 -0.006782609029909272    6    2    5    2
 0.02835344841180489    6    2    6    1
 0.05007865518729238    6    2    6    2
 0.004932900509897151    6    2    9    3
 -0.05235554884460823    6    2    9    4
 -0.006229326810827512    6    2    9    5
 0.02387661029912182    6    2    9    6
 -0.04130555806877389    6    2   10    3
 0.004284610684042157    6    2   10    4
 -0.001886793804508689    6    2   10    5
 -0.005535829386264663    6    2   10    6
 0.02674528680004288    6    2   10    7
 0.01052779708579456    6    2   10    8
 -0.00648135632478328    6    2   11    3
 -0.0002447092982410068    6    2   11    4
 0.0300931351386238    6    2   11    5
 -0.002747397912575063    6    2   11    6
 0.01067021534882646    6    2   11    7
 -0.01866704263922427    6    2   11    8
 0.002498402481377819    6    2   12    3
 0.0009535538568610946    6    2   12    4
 -0.03040135001108366    6    2   12    5
 0.00201820460233495    6    2   12    6
 -0.008143786150688136    6    2   12    7
 0.01978378955515715    6    2   12    8
 -0.002198543938544837    6    2   13    3
 -0.05099955985845853    6    2   13    4
 -0.002370264739554756    6    2   13    5
 0.0355562154886539    6    2   13    6
 0.005443860870133047    6    2   13    7
 -0.0009368007827189382    6    2   13    8
 0.01492715371224977    6    2   14    3
 1.426433360937238e-05    6    2   14    4
 0.01210104069094333    6    2   14    5
 -3.316225010474713e-05    6    2   14    6
 -0.007400236356697426    6    2   14    7
 -0.01132763508150949    6    2   14    8
 0.06095697652509639    6    3    1    1
 -0.002008914216908248    6    3    2    1
 0.02479429966694382    6    3    2    2
 0.02640878947658903    6    3    3    3
 -0.01600029810551876    6    3    4    3
 0.02339371732377948    6    3    4    4
 -0.001903734908132949    6    3    5    3
 0.02339371732377946    6    3    5    5
 0.02280154935111393    6    3    6    3
 -0.0164014878187648    6    3    6    4
 -0.001951468947639805    6    3    6    5
 0.01724748914093588    6    3    6    6
 -0.01569589371488191    6    3    7    3